Title: a berkeley spice3 compatible circuit
Date: Fri Apr  4 03:40:15  2025
Plotname: Transient Analysis
Flags: real
No. Variables: 8
No. Points: 208     
Variables:
	0	time	time
	1	v(vcc)	voltage
	2	v(1)	voltage
	3	v(base)	voltage
	4	v(coll)	voltage
	5	v(emit)	voltage
	6	i(vin)	current
	7	i(vcc)	current
Values:
0		0.000000000000000e+00
	1.200000000000000e+01
	0.000000000000000e+00
	2.074617161619260e+00
	7.003534142229633e+00
	1.293956531382122e+00
	0.000000000000000e+00
	-1.380398920119799e-03
1		1.000000000000000e-07
	1.200000000000000e+01
	6.283184893762573e-04
	2.075245479720855e+00
	7.001071286764583e+00
	1.294594347803038e+00
	-3.877809717778291e-08
	-1.381024138340078e-03
2		2.000000000000000e-07
	1.200000000000000e+01
	1.256636730702326e-03
	2.075873797188779e+00
	6.998692651034442e+00
	1.295210353471941e+00
	-7.734021778560418e-08
	-1.381627761762871e-03
3		4.000000000000001e-07
	1.200000000000000e+01
	2.513271477003727e-03
	2.077130429617029e+00
	6.993935231468861e+00
	1.296442403165195e+00
	-1.544648000617599e-07
	-1.382835046609250e-03
4		8.000000000000002e-07
	1.200000000000000e+01
	5.026527078818863e-03
	2.079643675955285e+00
	6.984420266889161e+00
	1.298906535039724e+00
	-3.087132256496261e-07
	-1.385249648653483e-03
5		1.600000000000000e-06
	1.200000000000000e+01
	1.005292715673065e-02
	2.084670038996477e+00
	6.965389772556420e+00
	1.303834945154102e+00
	-6.172047974928319e-07
	-1.390078998954543e-03
6		3.200000000000001e-06
	1.200000000000000e+01
	2.010483832545758e-02
	2.094721802057653e+00
	6.927328242921541e+00
	1.313691905480118e+00
	-1.234139595851502e-06
	-1.399737847896977e-03
7		6.400000000000001e-06
	1.200000000000000e+01
	4.020154936295321e-02
	2.114817920817333e+00
	6.851216777181925e+00
	1.333402823705041e+00
	-2.467596763366942e-06
	-1.419052647155436e-03
8		1.280000000000000e-05
	1.200000000000000e+01
	8.033810013339424e-02
	2.154952104001408e+00
	6.699150238701480e+00
	1.372784158377943e+00
	-4.931110630934654e-06
	-1.457642725446786e-03
9		2.280000000000001e-05
	1.200000000000000e+01
	1.427671311474490e-01
	2.217374287904056e+00
	6.462476758244240e+00
	1.434076521807847e+00
	-8.763112181675581e-06
	-1.517704011417308e-03
10		3.280000000000000e-05
	1.200000000000000e+01
	2.046327255189627e-01
	2.279229220346818e+00
	6.227776840378993e+00
	1.494857783125963e+00
	-1.256074532207663e-05
	-1.577264928212175e-03
11		4.280000000000000e-05
	1.200000000000000e+01
	2.656907280106526e-01
	2.340272787979325e+00
	5.995996033897923e+00
	1.554883069437851e+00
	-1.630897304227830e-05
	-1.636085468556637e-03
12		5.280000000000000e-05
	1.200000000000000e+01
	3.257001705814321e-01
	2.400264079586189e+00
	5.768067794225648e+00
	1.613910639721094e+00
	-1.999295478771757e-05
	-1.693928694018074e-03
13		6.280000000000001e-05
	1.200000000000000e+01
	3.844242233771807e-01
	2.458966336851713e+00
	5.544909549840418e+00
	1.671702903521599e+00
	-2.359810566066045e-05
	-1.750561734108299e-03
14		7.280000000000001e-05
	1.200000000000000e+01
	4.416311293899813e-01
	2.516147888734713e+00
	5.327419101261529e+00
	1.728027353523300e+00
	-2.711015393952465e-05
	-1.805756700276364e-03
15		8.280000000000001e-05
	1.200000000000000e+01
	4.970951190971508e-01
	2.571583065766163e+00
	5.116471036702551e+00
	1.782657493802261e+00
	-3.051519749774911e-05
	-1.859291595828864e-03
16		9.280000000000001e-05
	1.200000000000000e+01
	5.505973014704015e-01
	2.625053090661289e+00
	4.912913250855102e+00
	1.835373741372272e+00
	-3.379975875272834e-05
	-1.910951199643361e-03
17		1.028000000000000e-04
	1.200000000000000e+01
	6.019265278387285e-01
	2.676346941731286e+00
	4.717563578764965e+00
	1.885964297924763e+00
	-3.695083790589138e-05
	-1.960527920642953e-03
18		1.128000000000000e-04
	1.200000000000000e+01
	6.508802251957485e-01
	2.725262185687218e+00
	4.531206555704214e+00
	1.934225988938837e+00
	-3.995596426964454e-05
	-2.007822620270253e-03
19		1.228000000000000e-04
	1.200000000000000e+01
	6.972651956628108e-01
	2.771605776549387e+00
	4.354590314050621e+00
	1.979965067309687e+00
	-4.280324551686476e-05
	-2.052645400170245e-03
20		1.328000000000000e-04
	1.200000000000000e+01
	7.408983789527588e-01
	2.815194817509273e+00
	4.188423628012920e+00
	2.022997978689435e+00
	-4.548141460603006e-05
	-2.094816352334415e-03
21		1.428000000000000e-04
	1.200000000000000e+01
	7.816075748252524e-01
	2.855857282737334e+00
	4.033373116736082e+00
	2.063152085810759e+00
	-4.797987425764205e-05
	-2.134166269035170e-03
22		1.528000000000000e-04
	1.200000000000000e+01
	8.192321226824456e-01
	2.893432696288019e+00
	3.890060615938550e+00
	2.100266349165741e+00
	-5.028873875900786e-05
	-2.170537309975953e-03
23		1.628000000000000e-04
	1.200000000000000e+01
	8.536235356229667e-01
	2.927772765422669e+00
	3.759060727742172e+00
	2.134191961536827e+00
	-5.239887298191803e-05
	-2.203783624206755e-03
24		1.728000000000000e-04
	1.200000000000000e+01
	8.846460864518816e-01
	2.958741965850886e+00
	3.640898557808119e+00
	2.164792934020861e+00
	-5.430192841249237e-05
	-2.233771924493256e-03
25		1.828000000000000e-04
	1.200000000000000e+01
	9.121773433339238e-01
	2.986218076580677e+00
	3.536047648262834e+00
	2.191946631348107e+00
	-5.599037608661206e-05
	-2.260382011987313e-03
26		1.928000000000000e-04
	1.200000000000000e+01
	9.361086529760148e-01
	3.010092662266577e+00
	3.444928114225048e+00
	2.215544254474036e+00
	-5.745753629593509e-05
	-2.283507249217066e-03
27		2.028000000000000e-04
	1.200000000000000e+01
	9.563455694321727e-01
	3.030271501152125e+00
	3.367904991012916e+00
	2.235491268610294e+00
	-5.869760492682730e-05
	-2.303054979600552e-03
28		2.128000000000000e-04
	1.200000000000000e+01
	9.728082268385126e-01
	3.046674956917824e+00
	3.305286798340234e+00
	2.251707775061059e+00
	-5.970567635671387e-05
	-2.318946891882044e-03
29		2.228000000000000e-04
	1.200000000000000e+01
	9.854316546073247e-01
	3.059238292967053e+00
	3.257324327002743e+00
	2.264128825440204e+00
	-6.047776281015160e-05
	-2.331119328095268e-03
30		2.328000000000000e-04
	1.200000000000000e+01
	9.941660338363008e-01
	3.067911927909584e+00
	3.224209652716527e+00
	2.272704677061904e+00
	-6.101081007869880e-05
	-2.339523533870513e-03
31		2.428000000000000e-04
	1.200000000000000e+01
	9.989768939209825e-01
	3.072661631234440e+00
	3.206075380905347e+00
	2.277400988521186e+00
	-6.130270957349637e-05
	-2.344125850122182e-03
32		2.528000000000000e-04
	1.200000000000000e+01
	9.998452485944885e-01
	3.073468658399841e+00
	3.202994125352206e+00
	2.278198954709899e+00
	-6.135230663684155e-05
	-2.344907845376974e-03
33		2.628000000000000e-04
	1.200000000000000e+01
	9.967676708576361e-01
	3.070329824807122e+00
	3.214978222728184e+00
	2.275095380746677e+00
	-6.115940509676676e-05
	-2.341866388231882e-03
34		2.728000000000001e-04
	1.200000000000000e+01
	9.897563065037408e-01
	3.063257518366656e+00
	3.241979684098520e+00
	2.268102694535131e+00
	-6.072476804508398e-05
	-2.335013659662867e-03
35		2.828000000000001e-04
	1.200000000000000e+01
	9.788388261847201e-01
	3.052279650606200e+00
	3.283890383600198e+00
	2.257248897901714e+00
	-6.005011482734801e-05
	-2.324377105134913e-03
36		2.928000000000001e-04
	1.200000000000000e+01
	9.640583162076707e-01
	3.037439546514613e+00
	3.340542483553314e+00
	2.242577456502147e+00
	-5.913811424651527e-05
	-2.309999326700671e-03
37		3.028000000000002e-04
	1.200000000000000e+01
	9.454731084928992e-01
	3.018795773555687e+00
	3.411709094373675e+00
	2.224147128921769e+00
	-5.799237406378666e-05
	-2.291937915501963e-03
38		3.128000000000002e-04
	1.200000000000000e+01
	9.231565503644822e-01
	2.996421910526867e+00
	3.497105166728477e+00
	2.202031735629406e+00
	-5.661742674156756e-05
	-2.270265225323327e-03
39		3.228000000000002e-04
	1.200000000000000e+01
	8.971967150818869e-01
	2.970406257175107e+00
	3.596388612506365e+00
	2.176319868675241e+00
	-5.501871158575256e-05
	-2.245068088067643e-03
40		3.328000000000002e-04
	1.200000000000000e+01
	8.676960542550533e-01
	2.940851485715840e+00
	3.709161650283581e+00
	2.147114543249226e+00
	-5.320255327934120e-05
	-2.216447472249616e-03
41		3.428000000000003e-04
	1.200000000000000e+01
	8.347709935146946e-01
	2.907874235630371e+00
	3.834972370131346e+00
	2.114532792436715e+00
	-5.117613693972345e-05
	-2.184518085815147e-03
42		3.528000000000003e-04
	1.200000000000000e+01
	7.985514730335239e-01
	2.871604653340841e+00
	3.973316511773366e+00
	2.078705206720605e+00
	-4.894747977690628e-05
	-2.149407924806754e-03
43		3.628000000000003e-04
	1.200000000000000e+01
	7.591804347117554e-01
	2.832185878579455e+00
	4.123639449332236e+00
	2.039775419983188e+00
	-4.652539945659839e-05
	-2.111257769590555e-03
44		3.728000000000003e-04
	1.200000000000000e+01
	7.168132580507283e-01
	2.789773479479034e+00
	4.285338375144154e+00
	1.997899543954218e+00
	-4.391947933068963e-05
	-2.070220630552863e-03
45		3.828000000000004e-04
	1.200000000000000e+01
	6.716171469410024e-01
	2.744534838614335e+00
	4.457764674424869e+00
	1.953245553233078e+00
	-4.114003061594929e-05
	-2.026461145351070e-03
46		3.928000000000004e-04
	1.200000000000000e+01
	6.237704697849883e-01
	2.696648492417161e+00
	4.640226481927451e+00
	1.905992623180224e+00
	-3.819805170479640e-05
	-1.980154929966226e-03
47		4.028000000000004e-04
	1.200000000000000e+01
	5.734620555583535e-01
	2.646303426572286e+00
	4.831991411141737e+00
	1.856330423124309e+00
	-3.510518477511937e-05
	-1.931487885954345e-03
48		4.128000000000004e-04
	1.200000000000000e+01
	5.208904485883221e-01
	2.593698330174951e+00
	5.032289446078589e+00
	1.804458367464226e+00
	-3.187366983237183e-05
	-1.880655466421690e-03
49		4.228000000000005e-04
	1.200000000000000e+01
	4.662631249899223e-01
	2.539040811593440e+00
	5.240315985248248e+00
	1.750584827356908e+00
	-2.851629638911390e-05
	-1.827861903358874e-03
50		4.328000000000005e-04
	1.200000000000000e+01
	4.097956738525463e-01
	2.482546579131384e+00
	5.455235027103741e+00
	1.694926305768975e+00
	-2.504635296851632e-05
	-1.773319399053881e-03
51		4.428000000000005e-04
	1.200000000000000e+01
	3.517109464083097e-01
	2.424438589723355e+00
	5.676182485995653e+00
	1.637706578729535e+00
	-2.147757461656852e-05
	-1.717247284360291e-03
52		4.528000000000005e-04
	1.200000000000000e+01
	2.922381765400467e-01
	2.364946169023465e+00
	5.902269627577647e+00
	1.579155805648237e+00
	-1.782408863704177e-05
	-1.659871146623189e-03
53		4.628000000000006e-04
	1.200000000000000e+01
	2.316120760999031e-01
	2.304304106359638e+00
	6.132586612644872e+00
	1.519509611552087e+00
	-1.410035873039561e-05
	-1.601421930053103e-03
54		4.728000000000006e-04
	1.200000000000000e+01
	1.700719086088857e-01
	2.242751728125358e+00
	6.366206138593093e+00
	1.459008144040602e+00
	-1.032112779508765e-05
	-1.542135011284620e-03
55		4.828000000000006e-04
	1.200000000000000e+01
	1.078605449930533e-01
	2.180531953265848e+00
	6.602187168092860e+00
	1.397895107655164e+00
	-6.501359560040498e-06
	-1.482249252751224e-03
56		4.928000000000006e-04
	1.200000000000000e+01
	4.522350508292895e-02
	2.117890334586296e+00
	6.839578735185157e+00
	1.336416778197570e+00
	-2.656179295179584e-06
	-1.422006036350251e-03
57		5.028000000000006e-04
	1.200000000000000e+01
	-1.759201134110303e-02
	2.055074089665712e+00
	7.077423819883800e+00
	1.274820999307412e+00
	1.199186190348200e-06
	-1.361648279645958e-03
58		5.128000000000006e-04
	1.200000000000000e+01
	-8.033810013339850e-02
	1.992331125201040e+00
	7.314763283511625e+00
	1.213356163311013e+00
	5.049469055773415e-06
	-1.301419436565522e-03
59		5.228000000000007e-04
	1.200000000000000e+01
	-1.427671311474533e-01
	1.929909058632112e+00
	7.550639858437862e+00
	1.152270177981581e+00
	8.879421196983373e-06
	-1.241562484173202e-03
60		5.328000000000007e-04
	1.200000000000000e+01
	-2.046327255189670e-01
	1.868054240908749e+00
	7.784102187623429e+00
	1.091809420400617e+00
	1.267387510495155e-05
	-1.182318896661829e-03
61		5.428000000000007e-04
	1.200000000000000e+01
	-2.656907280106570e-01
	1.807010784256898e+00
	8.014208911373876e+00
	1.032217678593737e+00
	1.641780457095621e-05
	-1.123927607189771e-03
62		5.528000000000008e-04
	1.200000000000000e+01
	-3.257001705814365e-01
	1.747019598780933e+00
	8.240032800860309e+00
	9.737350810546150e-01
	2.009638505962030e-05
	-1.066623957637753e-03
63		5.628000000000008e-04
	1.200000000000000e+01
	-3.844242233771851e-01
	1.688317441704496e+00
	8.460664940094198e+00
	9.165970137208533e-01
	2.369505356236701e-05
	-1.010638635815212e-03
64		5.728000000000008e-04
	1.200000000000000e+01
	-4.416311293899857e-01
	1.631135983002336e+00
	8.675218959760603e+00
	8.610330235195985e-01
	2.719956771812804e-05
	-9.561965992057201e-04
65		5.828000000000008e-04
	1.200000000000000e+01
	-4.970951190971554e-01
	1.575700891111056e+00
	8.882835327022660e+00
	8.072657074182850e-01
	3.059606406230486e-05
	-9.035159841600028e-04
66		5.928000000000009e-04
	1.200000000000000e+01
	-5.505973014704061e-01
	1.522230942327427e+00
	9.082685694113845e+00
	7.555095862506427e-01
	3.387111518105002e-05
	-8.528069997783042e-04
67		6.028000000000009e-04
	1.200000000000000e+01
	-6.019265278387329e-01
	1.470937157409503e+00
	9.273977303771547e+00
	7.059699638223919e-01
	3.701178562431906e-05
	-8.042708069460214e-04
68		6.128000000000009e-04
	1.200000000000000e+01
	-6.508802251957528e-01
	1.422021968788464e+00
	9.455957439228724e+00
	6.588417744775207e-01
	4.000568633877322e-05
	-7.580983856380836e-04
69		6.228000000000009e-04
	1.200000000000000e+01
	-6.972651956628149e-01
	1.375678421678266e+00
	9.627917887812877e+00
	6.143084271405127e-01
	4.284102738916218e-05
	-7.144693983953000e-04
70		6.328000000000010e-04
	1.200000000000000e+01
	-7.408983789527627e-01
	1.332089412236338e+00
	9.789199356927581e+00
	5.725406616904518e-01
	4.550666865110742e-05
	-6.735510656397958e-04
71		6.428000000000010e-04
	1.200000000000000e+01
	-7.816075748252567e-01
	1.291426965782176e+00
	9.939195736107830e+00
	5.336954451978994e-01
	4.799216801343320e-05
	-6.354970800581195e-04
72		6.528000000000010e-04
	1.200000000000000e+01
	-8.192321226824493e-01
	1.253851557922278e+00
	1.007735803715018e+01
	4.979149515321984e-01
	5.028782657667819e-05
	-6.004466031002192e-04
73		6.628000000000010e-04
	1.200000000000000e+01
	-8.536235356229699e-01
	1.219511481260051e+00
	1.020319776796910e+01
	4.653256876192323e-01
	5.238473001245580e-05
	-5.685234062209640e-04
74		6.728000000000011e-04
	1.200000000000000e+01
	-8.846460864518846e-01
	1.188542260188725e+00
	1.031628941400968e+01
	4.360378508191078e-01
	5.427478516262241e-05
	-5.398352404725544e-04
75		6.828000000000011e-04
	1.200000000000000e+01
	-9.121773433339263e-01
	1.161066116074635e+00
	1.041627163406931e+01
	4.101450192390323e-01
	5.595075073960842e-05
	-5.144735352317388e-04
76		6.928000000000011e-04
	1.200000000000000e+01
	-9.361086529760172e-01
	1.137191484938396e+00
	1.050284675894659e+01
	3.877242815703709e-01
	5.740626096217838e-05
	-4.925135315745673e-04
77		7.028000000000011e-04
	1.200000000000000e+01
	-9.563455694321745e-01
	1.117012589533298e+00
	1.057577825536142e+01
	3.688368938683037e-01
	5.863584115717302e-05
	-4.740149368325079e-04
78		7.128000000000012e-04
	1.200000000000000e+01
	-9.728082268385145e-01
	1.100609067504999e+00
	1.063488602508454e+01
	3.535294969567976e-01
	5.963491492444462e-05
	-4.590231336622473e-04
79		7.228000000000012e-04
	1.200000000000000e+01
	-9.854316546073260e-01
	1.088045657095319e+00
	1.068003976361487e+01
	3.418358363608400e-01
	6.039980333927275e-05
	-4.475708860919017e-04
80		7.328000000000012e-04
	1.200000000000000e+01
	-9.941660338363016e-01
	1.079371941626964e+00
	1.071115106049616e+01
	3.337788081219220e-01
	6.092771790200402e-05
	-4.396803676359972e-04
81		7.428000000000013e-04
	1.200000000000000e+01
	-9.989768939209829e-01
	1.074622153776264e+00
	1.072816536822262e+01
	3.293725386455605e-01
	6.121675006021121e-05
	-4.353652225077193e-04
82		7.528000000000013e-04
	1.200000000000000e+01
	-9.998452485944884e-01
	1.073815040408201e+00
	1.073105523112719e+01
	3.286241382456123e-01
	6.126586082544350e-05
	-4.346323031530499e-04
83		7.628000000000013e-04
	1.200000000000000e+01
	-9.967676708576354e-01
	1.076953788512401e+00
	1.071981609801702e+01
	3.315347855643442e-01
	6.107487386852739e-05
	-4.374827446746148e-04
84		7.728000000000013e-04
	1.200000000000000e+01
	-9.897563065037397e-01
	1.084026012540382e+00
	1.069446559382908e+01
	3.380999161949559e-01
	6.064447430143005e-05
	-4.439121517132950e-04
85		7.828000000000014e-04
	1.200000000000000e+01
	-9.788388261847184e-01
	1.095003803203327e+00
	1.065504640157629e+01
	3.483084763313903e-01
	5.997621354625338e-05
	-4.539098589996875e-04
86		7.928000000000014e-04
	1.200000000000000e+01
	-9.640583162076686e-01
	1.109843837546506e+00
	1.060163213548191e+01
	3.621414017771578e-01
	5.907251871128949e-05
	-4.674574243214808e-04
87		8.028000000000014e-04
	1.200000000000000e+01
	-9.454731084928966e-01
	1.128487549872354e+00
	1.053433501822610e+01
	3.795696297352926e-01
	5.793670344145241e-05
	-4.845266582894549e-04
88		8.128000000000014e-04
	1.200000000000000e+01
	-9.231565503644793e-01
	1.150861362840844e+00
	1.045331396339745e+01
	4.005520056606180e-01
	5.657297670369488e-05
	-5.050775496030146e-04
89		8.228000000000015e-04
	1.200000000000000e+01
	-8.971967150818838e-01
	1.176876977834962e+00
	1.035878181198114e+01
	4.250334091948889e-01
	5.498644633972205e-05
	-5.290564066367442e-04
90		8.328000000000015e-04
	1.200000000000000e+01
	-8.676960542550490e-01
	1.206431723442583e+00
	1.025101085937966e+01
	4.529433228101101e-01
	5.318311523305752e-05
	-5.563944367707901e-04
91		8.428000000000015e-04
	1.200000000000000e+01
	-8.347709935146903e-01
	1.239408960675124e+00
	1.013033627165612e+01
	4.841949470890963e-01
	5.116986913122901e-05
	-5.870068663788599e-04
92		8.528000000000015e-04
	1.200000000000000e+01
	-7.985514730335189e-01
	1.275678543318965e+00
	9.997157389639254e+00
	5.186848629957708e-01
	4.895445620745065e-05
	-6.207926018387969e-04
93		8.628000000000016e-04
	1.200000000000000e+01
	-7.591804347117503e-01
	1.315097331598401e+00
	9.851937186213222e+00
	5.562931724231200e-01
	4.654545912741170e-05
	-6.576343635524206e-04
94		8.728000000000016e-04
	1.200000000000000e+01
	-7.168132580507228e-01
	1.357509757119360e+00
	9.695200267795260e+00
	5.968840157593009e-01
	4.395226073627967e-05
	-6.973991927377143e-04
95		8.828000000000016e-04
	1.200000000000000e+01
	-6.716171469409968e-01
	1.402748436861715e+00
	9.527529826883928e+00
	6.403063610994667e-01
	4.118500452321427e-05
	-7.399392266867863e-04
96		8.928000000000016e-04
	1.200000000000000e+01
	-6.237704697849829e-01
	1.450634833795441e+00
	9.349563902279895e+00
	6.863949727527243e-01
	3.825455090078478e-05
	-7.850926510774574e-04
97		9.028000000000017e-04
	1.200000000000000e+01
	-5.734620555583466e-01
	1.500979961512599e+00
	9.161991225474290e+00
	7.349714869210787e-01
	3.517243014261595e-05
	-8.326847579555692e-04
98		9.128000000000017e-04
	1.200000000000000e+01
	-5.208904485883153e-01
	1.553585130094029e+00
	8.965546851666556e+00
	7.858455431537374e-01
	3.195079265516654e-05
	-8.825290585281480e-04
99		9.228000000000017e-04
	1.200000000000000e+01
	-4.662631249899150e-01
	1.608242730267271e+00
	8.761007705518137e+00
	8.388159378827362e-01
	2.860235702994984e-05
	-9.344284174362667e-04
100		9.328000000000017e-04
	1.200000000000000e+01
	-4.097956738525396e-01
	1.664737052761304e+00
	8.549188119740581e+00
	8.936717798142766e-01
	2.514035628431444e-05
	-9.881761885132639e-04
101		9.428000000000018e-04
	1.200000000000000e+01
	-3.517109464083024e-01
	1.722845139624939e+00
	8.330935408455016e+00
	9.501936363150112e-01
	2.157848251105321e-05
	-1.043557341307593e-03
102		9.528000000000018e-04
	1.200000000000000e+01
	-2.922381765400396e-01
	1.782337664149563e+00
	8.107125494138987e+00
	1.008154665920832e+00
	1.793083021084385e-05
	-1.100349573579277e-03
103		9.628000000000018e-04
	1.200000000000000e+01
	-2.316120760998955e-01
	1.842979835924050e+00
	7.878658593533467e+00
	1.067321735576226e+00
	1.421183847538643e-05
	-1.158324408427050e-03
104		9.728000000000019e-04
	1.200000000000000e+01
	-1.700719086088775e-01
	1.904532327450397e+00
	7.646454961104681e+00
	1.127456522968631e+00
	1.043623218288658e-05
	-1.217248276442245e-03
105		9.828000000000018e-04
	1.200000000000000e+01
	-1.078605449930463e-01
	1.966752218663538e+00
	7.411450686139982e+00
	1.188316604972756e+00
	6.618962435922526e-06
	-1.276883583931318e-03
106		9.928000000000018e-04
	1.200000000000000e+01
	-4.522350508292153e-02
	2.029393955628065e+00
	7.174593539591324e+00
	1.249656533211700e+00
	2.775146370481707e-06
	-1.336989768240816e-03
107		1.002800000000002e-03
	1.200000000000000e+01
	1.759201134111135e-02
	2.092210319628563e+00
	6.936838868180594e+00
	1.311228897378424e+00
	-1.079993441344129e-06
	-1.397324340859973e-03
108		1.012800000000002e-03
	1.200000000000000e+01
	8.033810013340635e-02
	2.154953402829238e+00
	6.699145535301101e+00
	1.372785376438058e+00
	-4.931189797829916e-06
	-1.457643918458605e-03
109		1.022800000000002e-03
	1.200000000000000e+01
	1.427671311474606e-01
	2.217375586652536e+00
	6.462471910433622e+00
	1.434077777266505e+00
	-8.763191715388530e-06
	-1.517705241458187e-03
110		1.032800000000002e-03
	1.200000000000000e+01
	2.046327255189747e-01
	2.279230519015663e+00
	6.227771910873988e+00
	1.494859059741389e+00
	-1.256082506007061e-05
	-1.577266179201128e-03
111		1.042800000000002e-03
	1.200000000000000e+01
	2.656907280106642e-01
	2.340274086568430e+00
	5.995991101424917e+00
	1.554884346821890e+00
	-1.630905278471317e-05
	-1.636086720307414e-03
112		1.052800000000002e-03
	1.200000000000000e+01
	3.257001705814431e-01
	2.400265378095551e+00
	5.768062859267391e+00
	1.613911917748752e+00
	-1.999303453015244e-05
	-1.693929946406893e-03
113		1.062800000000002e-03
	1.200000000000000e+01
	3.844242233771919e-01
	2.458967635281331e+00
	5.544904612493676e+00
	1.671704182167810e+00
	-2.359818540575986e-05
	-1.750562987110347e-03
114		1.072800000000002e-03
	1.200000000000000e+01
	4.416311293899919e-01
	2.516149187084586e+00
	5.327414161764617e+00
	1.728028632726340e+00
	-2.711023368551224e-05
	-1.805757953830535e-03
115		1.082800000000002e-03
	1.200000000000000e+01
	4.970951190971615e-01
	2.571584364036290e+00
	5.116466095275835e+00
	1.782658773505057e+00
	-3.051527724373670e-05
	-1.859292849878654e-03
116		1.092800000000002e-03
	1.200000000000000e+01
	5.505973014704115e-01
	2.625054388851667e+00
	4.912908307701536e+00
	1.835375021522307e+00
	-3.379983850226864e-05
	-1.910952454136731e-03
117		1.102800000000002e-03
	1.200000000000000e+01
	6.019265278387385e-01
	2.676348239841916e+00
	4.717558634072056e+00
	1.885965578473503e+00
	-3.695091765276715e-05
	-1.960529175531823e-03
118		1.112800000000002e-03
	1.200000000000000e+01
	6.508802251957578e-01
	2.725263483718099e+00
	4.531201609645177e+00
	1.934227269841287e+00
	-3.995604401740849e-05
	-2.007823875510210e-03
119		1.122800000000002e-03
	1.200000000000000e+01
	6.972651956628205e-01
	2.771607074500522e+00
	4.354585366787584e+00
	1.979966348523995e+00
	-4.280332526107600e-05
	-2.052646655719717e-03
120		1.132800000000002e-03
	1.200000000000000e+01
	7.408983789527682e-01
	2.815196115380664e+00
	4.188418679696543e+00
	2.022999260176530e+00
	-4.548149434935311e-05
	-2.094817608154772e-03
121		1.142800000000002e-03
	1.200000000000000e+01
	7.816075748252610e-01
	2.855858580528982e+00
	4.033368167507636e+00
	2.063153367534025e+00
	-4.797995399918875e-05
	-2.134167525090189e-03
122		1.152800000000002e-03
	1.200000000000000e+01
	8.192321226824538e-01
	2.893433993999926e+00
	3.890055665931206e+00
	2.100267631090726e+00
	-5.028881849877820e-05
	-2.170538566231487e-03
123		1.162800000000002e-03
	1.200000000000000e+01
	8.536235356229739e-01
	2.927774063054835e+00
	3.759055777081672e+00
	2.134193243630970e+00
	-5.239895272080020e-05
	-2.203784880630561e-03
124		1.172800000000002e-03
	1.200000000000000e+01
	8.846460864518882e-01
	2.958743263403315e+00
	3.640893606613645e+00
	2.164794216253254e+00
	-5.430200814782182e-05
	-2.233773181054776e-03
125		1.182800000000002e-03
	1.200000000000000e+01
	9.121773433339295e-01
	2.986219374053372e+00
	3.536042696648312e+00
	2.191947913689263e+00
	-5.599045582016515e-05
	-2.260383268657335e-03
126		1.192800000000002e-03
	1.200000000000000e+01
	9.361086529760200e-01
	3.010093959659539e+00
	3.444923162299969e+00
	2.215545536895683e+00
	-5.745761602682364e-05
	-2.283508505967515e-03
127		1.202800000000002e-03
	1.200000000000000e+01
	9.563455694321769e-01
	3.030272798465358e+00
	3.367900038882206e+00
	2.235492551085182e+00
	-5.869768465149861e-05
	-2.303056236404525e-03
128		1.212800000000002e-03
	1.200000000000000e+01
	9.728082268385159e-01
	3.046676254151332e+00
	3.305281846105917e+00
	2.251709057562777e+00
	-5.970575607960882e-05
	-2.318948148713380e-03
129		1.222800000000002e-03
	1.200000000000000e+01
	9.854316546073272e-01
	3.059239590120840e+00
	3.257319374764331e+00
	2.264130107943005e+00
	-6.047784252860566e-05
	-2.331120584928451e-03
130		1.232800000000002e-03
	1.200000000000000e+01
	9.941660338363023e-01
	3.067913224983655e+00
	3.224204700571188e+00
	2.272705959540548e+00
	-6.101088979271196e-05
	-2.339524790680629e-03
131		1.242800000000002e-03
	1.200000000000000e+01
	9.989768939209832e-01
	3.072662928228798e+00
	3.206070428949462e+00
	2.277402270950772e+00
	-6.130278928218047e-05
	-2.344127106884517e-03
132		1.252800000000002e-03
	1.200000000000000e+01
	9.998452485944883e-01
	3.073469955314492e+00
	3.202989173681410e+00
	2.278200237065716e+00
	-6.135238634019657e-05
	-2.344909102067007e-03
133		1.262800000000003e-03
	1.200000000000000e+01
	9.967676708576348e-01
	3.070331121642071e+00
	3.214973271437430e+00
	2.275096663004050e+00
	-6.115948479656907e-05
	-2.341867644825264e-03
134		1.272800000000003e-03
	1.200000000000000e+01
	9.897563065037386e-01
	3.063258815121906e+00
	3.241974733283525e+00
	2.268103976669268e+00
	-6.072484773955722e-05
	-2.335014916135057e-03
135		1.282800000000003e-03
	1.200000000000000e+01
	9.788388261847167e-01
	3.052280947281757e+00
	3.283885433357730e+00
	2.257250179887553e+00
	-6.005019451560401e-05
	-2.324378361461098e-03
136		1.292800000000003e-03
	1.200000000000000e+01
	9.640583162076665e-01
	3.037440843110485e+00
	3.340537533982072e+00
	2.242578738314202e+00
	-5.913819392944220e-05
	-2.310000582855543e-03
137		1.302800000000003e-03
	1.200000000000000e+01
	9.454731084928942e-01
	3.018797070071879e+00
	3.411704145574196e+00
	2.224148410533963e+00
	-5.799245373960815e-05
	-2.291939171459744e-03
138		1.312800000000003e-03
	1.200000000000000e+01
	9.231565503644765e-01
	2.996423206963386e+00
	3.497100218804361e+00
	2.202033017014908e+00
	-5.661750641205998e-05
	-2.270266481057453e-03
139		1.322800000000003e-03
	1.200000000000000e+01
	8.971967150818799e-01
	2.970407553531958e+00
	3.596383665564684e+00
	2.176321149806282e+00
	-5.501879125002773e-05
	-2.245069343550659e-03
140		1.332800000000003e-03
	1.200000000000000e+01
	8.676960542550456e-01
	2.940852781993030e+00
	3.709156704436100e+00
	2.147115824096918e+00
	-5.320263293651095e-05
	-2.216448727452865e-03
141		1.342800000000003e-03
	1.200000000000000e+01
	8.347709935146864e-01
	2.907875531827907e+00
	3.834967425494827e+00
	2.114534072970845e+00
	-5.117621659067595e-05
	-2.184519340708689e-03
142		1.352800000000003e-03
	1.200000000000000e+01
	7.985514730335153e-01
	2.871605949458732e+00
	3.973311568470080e+00
	2.078706486909422e+00
	-4.894755941808882e-05
	-2.149409179359239e-03
143		1.362800000000003e-03
	1.200000000000000e+01
	7.591804347117463e-01
	2.832187174617709e+00
	4.123634507491824e+00
	2.039776699793163e+00
	-4.652547909067550e-05
	-2.111259023768740e-03
144		1.372800000000003e-03
	1.200000000000000e+01
	7.168132580507179e-01
	2.789774775437655e+00
	4.285333434903890e+00
	1.997900823349784e+00
	-4.391955895854949e-05
	-2.070221884321550e-03
145		1.382800000000003e-03
	1.200000000000000e+01
	6.716171469409904e-01
	2.744536134493332e+00
	4.457759735931128e+00
	1.953246832176359e+00
	-4.114011023226283e-05
	-2.026462398672726e-03
146		1.392800000000003e-03
	1.200000000000000e+01
	6.237704697849761e-01
	2.696649788216544e+00
	4.640221545336481e+00
	1.905993901630716e+00
	-3.819813131311633e-05
	-1.980156182800789e-03
147		1.402800000000003e-03
	1.200000000000000e+01
	5.734620555583410e-01
	2.646304722292065e+00
	4.831986476621431e+00
	1.856331701038540e+00
	-3.510526437366934e-05
	-1.931489138258764e-03
148		1.412800000000003e-03
	1.200000000000000e+01
	5.208904485883095e-01
	2.593699625815136e+00
	5.032284513809957e+00
	1.804459644795378e+00
	-3.187374941937549e-05
	-1.880656718149552e-03
149		1.422800000000003e-03
	1.200000000000000e+01
	4.662631249899080e-01
	2.539042107154041e+00
	5.240311055426282e+00
	1.750586104054392e+00
	-2.851637596723577e-05
	-1.827863154460182e-03
150		1.432800000000003e-03
	1.200000000000000e+01
	4.097956738525324e-01
	2.482547874612415e+00
	5.455230099940286e+00
	1.694927581777968e+00
	-2.504643253420369e-05
	-1.773320649474316e-03
151		1.442800000000003e-03
	1.200000000000000e+01
	3.517109464082958e-01
	2.424439885124825e+00
	5.676177561720832e+00
	1.637707853990458e+00
	-2.147765417248593e-05
	-1.717248534040847e-03
152		1.452800000000003e-03
	1.200000000000000e+01
	2.922381765400329e-01
	2.364947464345386e+00
	5.902264706442216e+00
	1.579157080096179e+00
	-1.782416817963650e-05
	-1.659872395499568e-03
153		1.462800000000003e-03
	1.200000000000000e+01
	2.316120760998878e-01
	2.304305401602020e+00
	6.132581694922156e+00
	1.519510885116167e+00
	-1.410043826055585e-05
	-1.601423178055222e-03
154		1.472800000000003e-03
	1.200000000000000e+01
	1.700719086088706e-01
	2.242753023288217e+00
	6.366201224582882e+00
	1.459009416643267e+00
	-1.032120731192521e-05
	-1.542136258335610e-03
155		1.482800000000003e-03
	1.200000000000000e+01
	1.078605449930385e-01
	2.180533248349198e+00
	6.602182258123281e+00
	1.397896379211409e+00
	-6.501439062667203e-06
	-1.482250498766949e-03
156		1.492800000000003e-03
	1.200000000000000e+01
	4.522350508291455e-02
	2.117891629590152e+00
	6.839573829616500e+00
	1.336418048614090e+00